ITEM: TIMESTEP
0
ITEM: NUMBER OF ATOMS
500
ITEM: BOX BOUNDS pp pp pp
0.0000000000000000e+00 3.5200000000000003e+01
0.0000000000000000e+00 1.7600000000000001e+01
0.0000000000000000e+00 1.7600000000000001e+01
ITEM: ATOMS id type x y z
1 1 0 0 0
2 1 1.76 1.76 1.76
3 1 3.52 0 0
11 1 0 3.52 0
13 1 3.52 3.52 0
51 1 0 0 3.52
53 1 3.52 0 3.52
61 1 0 3.52 3.52
63 1 3.52 3.52 3.52
4 1 5.28 1.76 1.76
5 1 7.04 0 0
15 1 7.04 3.52 0
55 1 7.04 0 3.52
65 1 7.04 3.52 3.52
6 1 8.8 1.76 1.76
7 1 10.56 0 0
8 1 12.32 1.76 1.76
17 1 10.56 3.52 0
57 1 10.56 0 3.52
67 1 10.56 3.52 3.52
9 1 14.08 0 0
10 1 15.84 1.76 1.76
19 1 14.08 3.52 0
59 1 14.08 0 3.52
69 1 14.08 3.52 3.52
12 1 1.76 5.28 1.76
21 1 0 7.04 0
23 1 3.52 7.04 0
71 1 0 7.04 3.52
73 1 3.52 7.04 3.52
14 1 5.28 5.28 1.76
25 1 7.04 7.04 0
75 1 7.04 7.04 3.52
16 1 8.8 5.28 1.76
18 1 12.32 5.28 1.76
27 1 10.56 7.04 0
77 1 10.56 7.04 3.52
20 1 15.84 5.28 1.76
29 1 14.08 7.04 0
79 1 14.08 7.04 3.52
22 1 1.76 8.8 1.76
31 1 0 10.56 0
32 1 1.76 12.32 1.76
33 1 3.52 10.56 0
81 1 0 10.56 3.52
83 1 3.52 10.56 3.52
24 1 5.28 8.8 1.76
34 1 5.28 12.32 1.76
35 1 7.04 10.56 0
85 1 7.04 10.56 3.52
26 1 8.8 8.8 1.76
28 1 12.32 8.8 1.76
36 1 8.8 12.32 1.76
37 1 10.56 10.56 0
38 1 12.32 12.32 1.76
87 1 10.56 10.56 3.52
30 1 15.84 8.8 1.76
39 1 14.08 10.56 0
40 1 15.84 12.32 1.76
89 1 14.08 10.56 3.52
41 1 0 14.08 0
42 1 1.76 15.84 1.76
43 1 3.52 14.08 0
91 1 0 14.08 3.52
93 1 3.52 14.08 3.52
44 1 5.28 15.84 1.76
45 1 7.04 14.08 0
95 1 7.04 14.08 3.52
46 1 8.8 15.84 1.76
47 1 10.56 14.08 0
48 1 12.32 15.84 1.76
97 1 10.56 14.08 3.52
49 1 14.08 14.08 0
50 1 15.84 15.84 1.76
99 1 14.08 14.08 3.52
52 1 1.76 1.76 5.28
101 1 0 0 7.04
102 1 3.52 0 7.04
106 1 0 3.52 7.04
107 1 3.52 3.52 7.04
54 1 5.28 1.76 5.28
103 1 7.04 0 7.04
108 1 7.04 3.52 7.04
56 1 8.8 1.76 5.28
58 1 12.32 1.76 5.28
104 1 10.56 0 7.04
109 1 10.56 3.52 7.04
60 1 15.84 1.76 5.28
105 1 14.08 0 7.04
110 1 14.08 3.52 7.04
62 1 1.76 5.28 5.28
111 1 0 7.04 7.04
112 1 3.52 7.04 7.04
64 1 5.28 5.28 5.28
113 1 7.04 7.04 7.04
66 1 8.8 5.28 5.28
68 1 12.32 5.28 5.28
114 1 10.56 7.04 7.04
70 1 15.84 5.28 5.28
115 1 14.08 7.04 7.04
72 1 1.76 8.8 5.28
82 1 1.76 12.32 5.28
116 1 0 10.56 7.04
117 1 3.52 10.56 7.04
74 1 5.28 8.8 5.28
84 1 5.28 12.32 5.28
118 1 7.04 10.56 7.04
76 1 8.8 8.8 5.28
78 1 12.32 8.8 5.28
86 1 8.8 12.32 5.28
88 1 12.32 12.32 5.28
119 1 10.56 10.56 7.04
80 1 15.84 8.8 5.28
90 1 15.84 12.32 5.28
120 1 14.08 10.56 7.04
92 1 1.76 15.84 5.28
121 1 0 14.08 7.04
122 1 3.52 14.08 7.04
94 1 5.28 15.84 5.28
123 1 7.04 14.08 7.04
96 1 8.8 15.84 5.28
98 1 12.32 15.84 5.28
124 1 10.56 14.08 7.04
100 1 15.84 15.84 5.28
125 1 14.08 14.08 7.04
126 1 1.76 1.76 8.8
151 1 0 0 10.56
152 1 1.76 1.76 12.32
153 1 3.52 0 10.56
161 1 0 3.52 10.56
163 1 3.52 3.52 10.56
127 1 5.28 1.76 8.8
154 1 5.28 1.76 12.32
155 1 7.04 0 10.56
165 1 7.04 3.52 10.56
128 1 8.8 1.76 8.8
129 1 12.32 1.76 8.8
156 1 8.8 1.76 12.32
157 1 10.56 0 10.56
158 1 12.32 1.76 12.32
167 1 10.56 3.52 10.56
130 1 15.84 1.76 8.8
159 1 14.08 0 10.56
160 1 15.84 1.76 12.32
169 1 14.08 3.52 10.56
131 1 1.76 5.28 8.8
162 1 1.76 5.28 12.32
171 1 0 7.04 10.56
173 1 3.52 7.04 10.56
132 1 5.28 5.28 8.8
164 1 5.28 5.28 12.32
175 1 7.04 7.04 10.56
133 1 8.8 5.28 8.8
134 1 12.32 5.28 8.8
166 1 8.8 5.28 12.32
168 1 12.32 5.28 12.32
177 1 10.56 7.04 10.56
135 1 15.84 5.28 8.8
170 1 15.84 5.28 12.32
179 1 14.08 7.04 10.56
136 1 1.76 8.8 8.8
141 1 1.76 12.32 8.8
172 1 1.76 8.8 12.32
181 1 0 10.56 10.56
182 1 1.76 12.32 12.32
183 1 3.52 10.56 10.56
137 1 5.28 8.8 8.8
142 1 5.28 12.32 8.8
174 1 5.28 8.8 12.32
184 1 5.28 12.32 12.32
185 1 7.04 10.56 10.56
138 1 8.8 8.8 8.8
139 1 12.32 8.8 8.8
143 1 8.8 12.32 8.8
144 1 12.32 12.32 8.8
176 1 8.8 8.8 12.32
178 1 12.32 8.8 12.32
186 1 8.8 12.32 12.32
187 1 10.56 10.56 10.56
188 1 12.32 12.32 12.32
140 1 15.84 8.8 8.8
145 1 15.84 12.32 8.8
180 1 15.84 8.8 12.32
189 1 14.08 10.56 10.56
190 1 15.84 12.32 12.32
146 1 1.76 15.84 8.8
191 1 0 14.08 10.56
192 1 1.76 15.84 12.32
193 1 3.52 14.08 10.56
147 1 5.28 15.84 8.8
194 1 5.28 15.84 12.32
195 1 7.04 14.08 10.56
148 1 8.8 15.84 8.8
149 1 12.32 15.84 8.8
196 1 8.8 15.84 12.32
197 1 10.56 14.08 10.56
198 1 12.32 15.84 12.32
150 1 15.84 15.84 8.8
199 1 14.08 14.08 10.56
200 1 15.84 15.84 12.32
201 1 0 0 14.08
202 1 1.76 1.76 15.84
203 1 3.52 0 14.08
211 1 0 3.52 14.08
213 1 3.52 3.52 14.08
204 1 5.28 1.76 15.84
205 1 7.04 0 14.08
215 1 7.04 3.52 14.08
206 1 8.8 1.76 15.84
207 1 10.56 0 14.08
208 1 12.32 1.76 15.84
217 1 10.56 3.52 14.08
209 1 14.08 0 14.08
210 1 15.84 1.76 15.84
219 1 14.08 3.52 14.08
212 1 1.76 5.28 15.84
221 1 0 7.04 14.08
223 1 3.52 7.04 14.08
214 1 5.28 5.28 15.84
225 1 7.04 7.04 14.08
216 1 8.8 5.28 15.84
218 1 12.32 5.28 15.84
227 1 10.56 7.04 14.08
220 1 15.84 5.28 15.84
229 1 14.08 7.04 14.08
222 1 1.76 8.8 15.84
231 1 0 10.56 14.08
232 1 1.76 12.32 15.84
233 1 3.52 10.56 14.08
224 1 5.28 8.8 15.84
234 1 5.28 12.32 15.84
235 1 7.04 10.56 14.08
226 1 8.8 8.8 15.84
228 1 12.32 8.8 15.84
236 1 8.8 12.32 15.84
237 1 10.56 10.56 14.08
238 1 12.32 12.32 15.84
230 1 15.84 8.8 15.84
239 1 14.08 10.56 14.08
240 1 15.84 12.32 15.84
241 1 0 14.08 14.08
242 1 1.76 15.84 15.84
243 1 3.52 14.08 14.08
244 1 5.28 15.84 15.84
245 1 7.04 14.08 14.08
246 1 8.8 15.84 15.84
247 1 10.56 14.08 14.08
248 1 12.32 15.84 15.84
249 1 14.08 14.08 14.08
250 1 15.84 15.84 15.84
251 1 17.6 0 0
252 1 19.36 1.76 1.76
253 1 21.12 0 0
261 1 17.6 3.52 0
263 1 21.12 3.52 0
301 1 17.6 0 3.52
303 1 21.12 0 3.52
311 1 17.6 3.52 3.52
313 1 21.12 3.52 3.52
254 1 22.88 1.76 1.76
255 1 24.64 0 0
256 1 26.4 1.76 1.76
265 1 24.64 3.52 0
305 1 24.64 0 3.52
315 1 24.64 3.52 3.52
257 1 28.16 0 0
258 1 29.92 1.76 1.76
267 1 28.16 3.52 0
307 1 28.16 0 3.52
317 1 28.16 3.52 3.52
259 1 31.68 0 0
260 1 33.44 1.76 1.76
269 1 31.68 3.52 0
309 1 31.68 0 3.52
319 1 31.68 3.52 3.52
262 1 19.36 5.28 1.76
271 1 17.6 7.04 0
273 1 21.12 7.04 0
321 1 17.6 7.04 3.52
323 1 21.12 7.04 3.52
264 1 22.88 5.28 1.76
266 1 26.4 5.28 1.76
275 1 24.64 7.04 0
325 1 24.64 7.04 3.52
268 1 29.92 5.28 1.76
277 1 28.16 7.04 0
327 1 28.16 7.04 3.52
270 1 33.44 5.28 1.76
279 1 31.68 7.04 0
329 1 31.68 7.04 3.52
272 1 19.36 8.8 1.76
281 1 17.6 10.56 0
282 1 19.36 12.32 1.76
283 1 21.12 10.56 0
331 1 17.6 10.56 3.52
333 1 21.12 10.56 3.52
274 1 22.88 8.8 1.76
276 1 26.4 8.8 1.76
284 1 22.88 12.32 1.76
285 1 24.64 10.56 0
286 1 26.4 12.32 1.76
335 1 24.64 10.56 3.52
278 1 29.92 8.8 1.76
287 1 28.16 10.56 0
288 1 29.92 12.32 1.76
337 1 28.16 10.56 3.52
280 1 33.44 8.8 1.76
289 1 31.68 10.56 0
290 1 33.44 12.32 1.76
339 1 31.68 10.56 3.52
291 1 17.6 14.08 0
292 1 19.36 15.84 1.76
293 1 21.12 14.08 0
341 1 17.6 14.08 3.52
343 1 21.12 14.08 3.52
294 1 22.88 15.84 1.76
295 1 24.64 14.08 0
296 1 26.4 15.84 1.76
345 1 24.64 14.08 3.52
297 1 28.16 14.08 0
298 1 29.92 15.84 1.76
347 1 28.16 14.08 3.52
299 1 31.68 14.08 0
300 1 33.44 15.84 1.76
349 1 31.68 14.08 3.52
302 1 19.36 1.76 5.28
351 1 17.6 0 7.04
352 1 21.12 0 7.04
356 1 17.6 3.52 7.04
357 1 21.12 3.52 7.04
304 1 22.88 1.76 5.28
306 1 26.4 1.76 5.28
353 1 24.64 0 7.04
358 1 24.64 3.52 7.04
308 1 29.92 1.76 5.28
354 1 28.16 0 7.04
359 1 28.16 3.52 7.04
310 1 33.44 1.76 5.28
355 1 31.68 0 7.04
360 1 31.68 3.52 7.04
312 1 19.36 5.28 5.28
361 1 17.6 7.04 7.04
362 1 21.12 7.04 7.04
314 1 22.88 5.28 5.28
316 1 26.4 5.28 5.28
363 1 24.64 7.04 7.04
318 1 29.92 5.28 5.28
364 1 28.16 7.04 7.04
320 1 33.44 5.28 5.28
365 1 31.68 7.04 7.04
322 1 19.36 8.8 5.28
332 1 19.36 12.32 5.28
366 1 17.6 10.56 7.04
367 1 21.12 10.56 7.04
324 1 22.88 8.8 5.28
326 1 26.4 8.8 5.28
334 1 22.88 12.32 5.28
336 1 26.4 12.32 5.28
368 1 24.64 10.56 7.04
328 1 29.92 8.8 5.28
338 1 29.92 12.32 5.28
369 1 28.16 10.56 7.04
330 1 33.44 8.8 5.28
340 1 33.44 12.32 5.28
370 1 31.68 10.56 7.04
342 1 19.36 15.84 5.28
371 1 17.6 14.08 7.04
372 1 21.12 14.08 7.04
344 1 22.88 15.84 5.28
346 1 26.4 15.84 5.28
373 1 24.64 14.08 7.04
348 1 29.92 15.84 5.28
374 1 28.16 14.08 7.04
350 1 33.44 15.84 5.28
375 1 31.68 14.08 7.04
376 1 19.36 1.76 8.8
401 1 17.6 0 10.56
402 1 19.36 1.76 12.32
403 1 21.12 0 10.56
411 1 17.6 3.52 10.56
413 1 21.12 3.52 10.56
377 1 22.88 1.76 8.8
378 1 26.4 1.76 8.8
404 1 22.88 1.76 12.32
405 1 24.64 0 10.56
406 1 26.4 1.76 12.32
415 1 24.64 3.52 10.56
379 1 29.92 1.76 8.8
407 1 28.16 0 10.56
408 1 29.92 1.76 12.32
417 1 28.16 3.52 10.56
380 1 33.44 1.76 8.8
409 1 31.68 0 10.56
410 1 33.44 1.76 12.32
419 1 31.68 3.52 10.56
381 1 19.36 5.28 8.8
412 1 19.36 5.28 12.32
421 1 17.6 7.04 10.56
423 1 21.12 7.04 10.56
382 1 22.88 5.28 8.8
383 1 26.4 5.28 8.8
414 1 22.88 5.28 12.32
416 1 26.4 5.28 12.32
425 1 24.64 7.04 10.56
384 1 29.92 5.28 8.8
418 1 29.92 5.28 12.32
427 1 28.16 7.04 10.56
385 1 33.44 5.28 8.8
420 1 33.44 5.28 12.32
429 1 31.68 7.04 10.56
386 1 19.36 8.8 8.8
391 1 19.36 12.32 8.8
422 1 19.36 8.8 12.32
431 1 17.6 10.56 10.56
432 1 19.36 12.32 12.32
433 1 21.12 10.56 10.56
387 1 22.88 8.8 8.8
388 1 26.4 8.8 8.8
392 1 22.88 12.32 8.8
393 1 26.4 12.32 8.8
424 1 22.88 8.8 12.32
426 1 26.4 8.8 12.32
434 1 22.88 12.32 12.32
435 1 24.64 10.56 10.56
436 1 26.4 12.32 12.32
389 1 29.92 8.8 8.8
394 1 29.92 12.32 8.8
428 1 29.92 8.8 12.32
437 1 28.16 10.56 10.56
438 1 29.92 12.32 12.32
390 1 33.44 8.8 8.8
395 1 33.44 12.32 8.8
430 1 33.44 8.8 12.32
439 1 31.68 10.56 10.56
440 1 33.44 12.32 12.32
396 1 19.36 15.84 8.8
441 1 17.6 14.08 10.56
442 1 19.36 15.84 12.32
443 1 21.12 14.08 10.56
397 1 22.88 15.84 8.8
398 1 26.4 15.84 8.8
444 1 22.88 15.84 12.32
445 1 24.64 14.08 10.56
446 1 26.4 15.84 12.32
399 1 29.92 15.84 8.8
447 1 28.16 14.08 10.56
448 1 29.92 15.84 12.32
400 1 33.44 15.84 8.8
449 1 31.68 14.08 10.56
450 1 33.44 15.84 12.32
451 1 17.6 0 14.08
452 1 19.36 1.76 15.84
453 1 21.12 0 14.08
461 1 17.6 3.52 14.08
463 1 21.12 3.52 14.08
454 1 22.88 1.76 15.84
455 1 24.64 0 14.08
456 1 26.4 1.76 15.84
465 1 24.64 3.52 14.08
457 1 28.16 0 14.08
458 1 29.92 1.76 15.84
467 1 28.16 3.52 14.08
459 1 31.68 0 14.08
460 1 33.44 1.76 15.84
469 1 31.68 3.52 14.08
462 1 19.36 5.28 15.84
471 1 17.6 7.04 14.08
473 1 21.12 7.04 14.08
464 1 22.88 5.28 15.84
466 1 26.4 5.28 15.84
475 1 24.64 7.04 14.08
468 1 29.92 5.28 15.84
477 1 28.16 7.04 14.08
470 1 33.44 5.28 15.84
479 1 31.68 7.04 14.08
472 1 19.36 8.8 15.84
481 1 17.6 10.56 14.08
482 1 19.36 12.32 15.84
483 1 21.12 10.56 14.08
474 1 22.88 8.8 15.84
476 1 26.4 8.8 15.84
484 1 22.88 12.32 15.84
485 1 24.64 10.56 14.08
486 1 26.4 12.32 15.84
478 1 29.92 8.8 15.84
487 1 28.16 10.56 14.08
488 1 29.92 12.32 15.84
480 1 33.44 8.8 15.84
489 1 31.68 10.56 14.08
490 1 33.44 12.32 15.84
491 1 17.6 14.08 14.08
492 1 19.36 15.84 15.84
493 1 21.12 14.08 14.08
494 1 22.88 15.84 15.84
495 1 24.64 14.08 14.08
496 1 26.4 15.84 15.84
497 1 28.16 14.08 14.08
498 1 29.92 15.84 15.84
499 1 31.68 14.08 14.08
500 1 33.44 15.84 15.84
