ITEM: TIMESTEP
1000
ITEM: NUMBER OF ATOMS
500
ITEM: BOX BOUNDS pp pp pp
-2.4679785818408035e+00 3.7667978581840728e+01
-1.3393463762120366e+00 1.8939346376212033e+01
-1.1867109567290957e+00 1.8786710956729014e+01
ITEM: ATOMS id type x y z
1 1 -2.46798 -1.33935 -1.18671
2 1 -0.461181 0.688523 0.810631
3 1 1.54562 -1.33935 -1.18671
11 1 -2.46798 2.71639 -1.18671
13 1 1.54562 2.71639 -1.18671
51 1 -2.46798 -1.33935 2.80797
53 1 1.54562 -1.33935 2.80797
61 1 -2.46798 2.71639 2.80797
63 1 1.54562 2.71639 2.80797
4 1 3.55241 0.688523 0.810631
5 1 5.55921 -1.33935 -1.18671
15 1 5.55921 2.71639 -1.18671
55 1 5.55921 -1.33935 2.80797
65 1 5.55921 2.71639 2.80797
6 1 7.56601 0.688523 0.810631
7 1 9.57281 -1.33935 -1.18671
8 1 11.5796 0.688523 0.810631
17 1 9.57281 2.71639 -1.18671
57 1 9.57281 -1.33935 2.80797
67 1 9.57281 2.71639 2.80797
9 1 13.5864 -1.33935 -1.18671
10 1 15.5932 0.688523 0.810631
19 1 13.5864 2.71639 -1.18671
59 1 13.5864 -1.33935 2.80797
69 1 13.5864 2.71639 2.80797
12 1 -0.461181 4.74426 0.810631
21 1 -2.46798 6.77213 -1.18671
23 1 1.54562 6.77213 -1.18671
71 1 -2.46798 6.77213 2.80797
73 1 1.54562 6.77213 2.80797
14 1 3.55241 4.74426 0.810631
25 1 5.55921 6.77213 -1.18671
75 1 5.55921 6.77213 2.80797
16 1 7.56601 4.74426 0.810631
18 1 11.5796 4.74426 0.810631
27 1 9.57281 6.77213 -1.18671
77 1 9.57281 6.77213 2.80797
20 1 15.5932 4.74426 0.810631
29 1 13.5864 6.77213 -1.18671
79 1 13.5864 6.77213 2.80797
22 1 -0.461181 8.8 0.810631
31 1 -2.46798 10.8279 -1.18671
32 1 -0.461181 12.8557 0.810631
33 1 1.54562 10.8279 -1.18671
81 1 -2.46798 10.8279 2.80797
83 1 1.54562 10.8279 2.80797
24 1 3.55241 8.8 0.810631
34 1 3.55241 12.8557 0.810631
35 1 5.55921 10.8279 -1.18671
85 1 5.55921 10.8279 2.80797
26 1 7.56601 8.8 0.810631
28 1 11.5796 8.8 0.810631
36 1 7.56601 12.8557 0.810631
37 1 9.57281 10.8279 -1.18671
38 1 11.5796 12.8557 0.810631
87 1 9.57281 10.8279 2.80797
30 1 15.5932 8.8 0.810631
39 1 13.5864 10.8279 -1.18671
40 1 15.5932 12.8557 0.810631
89 1 13.5864 10.8279 2.80797
41 1 -2.46798 14.8836 -1.18671
42 1 -0.461181 16.9115 0.810631
43 1 1.54562 14.8836 -1.18671
91 1 -2.46798 14.8836 2.80797
93 1 1.54562 14.8836 2.80797
44 1 3.55241 16.9115 0.810631
45 1 5.55921 14.8836 -1.18671
95 1 5.55921 14.8836 2.80797
46 1 7.56601 16.9115 0.810631
47 1 9.57281 14.8836 -1.18671
48 1 11.5796 16.9115 0.810631
97 1 9.57281 14.8836 2.80797
49 1 13.5864 14.8836 -1.18671
50 1 15.5932 16.9115 0.810631
99 1 13.5864 14.8836 2.80797
52 1 -0.461181 0.688523 4.80532
101 1 -2.46798 -1.33935 6.80266
102 1 1.54562 -1.33935 6.80266
106 1 -2.46798 2.71639 6.80266
107 1 1.54562 2.71639 6.80266
54 1 3.55241 0.688523 4.80532
103 1 5.55921 -1.33935 6.80266
108 1 5.55921 2.71639 6.80266
56 1 7.56601 0.688523 4.80532
58 1 11.5796 0.688523 4.80532
104 1 9.57281 -1.33935 6.80266
109 1 9.57281 2.71639 6.80266
60 1 15.5932 0.688523 4.80532
105 1 13.5864 -1.33935 6.80266
110 1 13.5864 2.71639 6.80266
62 1 -0.461181 4.74426 4.80532
111 1 -2.46798 6.77213 6.80266
112 1 1.54562 6.77213 6.80266
64 1 3.55241 4.74426 4.80532
113 1 5.55921 6.77213 6.80266
66 1 7.56601 4.74426 4.80532
68 1 11.5796 4.74426 4.80532
114 1 9.57281 6.77213 6.80266
70 1 15.5932 4.74426 4.80532
115 1 13.5864 6.77213 6.80266
72 1 -0.461181 8.8 4.80532
82 1 -0.461181 12.8557 4.80532
116 1 -2.46798 10.8279 6.80266
117 1 1.54562 10.8279 6.80266
74 1 3.55241 8.8 4.80532
84 1 3.55241 12.8557 4.80532
118 1 5.55921 10.8279 6.80266
76 1 7.56601 8.8 4.80532
78 1 11.5796 8.8 4.80532
86 1 7.56601 12.8557 4.80532
88 1 11.5796 12.8557 4.80532
119 1 9.57281 10.8279 6.80266
80 1 15.5932 8.8 4.80532
90 1 15.5932 12.8557 4.80532
120 1 13.5864 10.8279 6.80266
92 1 -0.461181 16.9115 4.80532
121 1 -2.46798 14.8836 6.80266
122 1 1.54562 14.8836 6.80266
94 1 3.55241 16.9115 4.80532
123 1 5.55921 14.8836 6.80266
96 1 7.56601 16.9115 4.80532
98 1 11.5796 16.9115 4.80532
124 1 9.57281 14.8836 6.80266
100 1 15.5932 16.9115 4.80532
125 1 13.5864 14.8836 6.80266
150 1 15.5932 16.9115 8.8
126 1 -0.461181 0.688523 8.8
127 1 3.55241 0.688523 8.8
128 1 7.56601 0.688523 8.8
129 1 11.5796 0.688523 8.8
130 1 15.5932 0.688523 8.8
131 1 -0.461181 4.74426 8.8
132 1 3.55241 4.74426 8.8
133 1 7.56601 4.74426 8.8
134 1 11.5796 4.74426 8.8
135 1 15.5932 4.74426 8.8
136 1 -0.461181 8.8 8.8
141 1 -0.461181 12.8557 8.8
137 1 3.55241 8.8 8.8
142 1 3.55241 12.8557 8.8
138 1 7.56601 8.8 8.8
139 1 11.5796 8.8 8.8
143 1 7.56601 12.8557 8.8
144 1 11.5796 12.8557 8.8
140 1 15.5932 8.8 8.8
145 1 15.5932 12.8557 8.8
146 1 -0.461181 16.9115 8.8
147 1 3.55241 16.9115 8.8
148 1 7.56601 16.9115 8.8
149 1 11.5796 16.9115 8.8
250 1 15.5932 16.9115 16.7894
151 1 -2.46798 -1.33935 10.7973
152 1 -0.461181 0.688523 12.7947
153 1 1.54562 -1.33935 10.7973
161 1 -2.46798 2.71639 10.7973
163 1 1.54562 2.71639 10.7973
249 1 13.5864 14.8836 14.792
154 1 3.55241 0.688523 12.7947
155 1 5.55921 -1.33935 10.7973
165 1 5.55921 2.71639 10.7973
248 1 11.5796 16.9115 16.7894
247 1 9.57281 14.8836 14.792
156 1 7.56601 0.688523 12.7947
157 1 9.57281 -1.33935 10.7973
158 1 11.5796 0.688523 12.7947
167 1 9.57281 2.71639 10.7973
246 1 7.56601 16.9115 16.7894
159 1 13.5864 -1.33935 10.7973
160 1 15.5932 0.688523 12.7947
169 1 13.5864 2.71639 10.7973
245 1 5.55921 14.8836 14.792
162 1 -0.461181 4.74426 12.7947
171 1 -2.46798 6.77213 10.7973
173 1 1.54562 6.77213 10.7973
244 1 3.55241 16.9115 16.7894
164 1 3.55241 4.74426 12.7947
175 1 5.55921 6.77213 10.7973
243 1 1.54562 14.8836 14.792
242 1 -0.461181 16.9115 16.7894
166 1 7.56601 4.74426 12.7947
168 1 11.5796 4.74426 12.7947
177 1 9.57281 6.77213 10.7973
241 1 -2.46798 14.8836 14.792
170 1 15.5932 4.74426 12.7947
179 1 13.5864 6.77213 10.7973
240 1 15.5932 12.8557 16.7894
239 1 13.5864 10.8279 14.792
172 1 -0.461181 8.8 12.7947
181 1 -2.46798 10.8279 10.7973
182 1 -0.461181 12.8557 12.7947
183 1 1.54562 10.8279 10.7973
230 1 15.5932 8.8 16.7894
238 1 11.5796 12.8557 16.7894
174 1 3.55241 8.8 12.7947
184 1 3.55241 12.8557 12.7947
185 1 5.55921 10.8279 10.7973
237 1 9.57281 10.8279 14.792
236 1 7.56601 12.8557 16.7894
228 1 11.5796 8.8 16.7894
226 1 7.56601 8.8 16.7894
176 1 7.56601 8.8 12.7947
178 1 11.5796 8.8 12.7947
186 1 7.56601 12.8557 12.7947
187 1 9.57281 10.8279 10.7973
188 1 11.5796 12.8557 12.7947
235 1 5.55921 10.8279 14.792
234 1 3.55241 12.8557 16.7894
180 1 15.5932 8.8 12.7947
189 1 13.5864 10.8279 10.7973
190 1 15.5932 12.8557 12.7947
224 1 3.55241 8.8 16.7894
191 1 -2.46798 14.8836 10.7973
192 1 -0.461181 16.9115 12.7947
193 1 1.54562 14.8836 10.7973
233 1 1.54562 10.8279 14.792
194 1 3.55241 16.9115 12.7947
195 1 5.55921 14.8836 10.7973
232 1 -0.461181 12.8557 16.7894
231 1 -2.46798 10.8279 14.792
196 1 7.56601 16.9115 12.7947
197 1 9.57281 14.8836 10.7973
198 1 11.5796 16.9115 12.7947
222 1 -0.461181 8.8 16.7894
199 1 13.5864 14.8836 10.7973
200 1 15.5932 16.9115 12.7947
201 1 -2.46798 -1.33935 14.792
202 1 -0.461181 0.688523 16.7894
203 1 1.54562 -1.33935 14.792
211 1 -2.46798 2.71639 14.792
213 1 1.54562 2.71639 14.792
204 1 3.55241 0.688523 16.7894
205 1 5.55921 -1.33935 14.792
215 1 5.55921 2.71639 14.792
206 1 7.56601 0.688523 16.7894
207 1 9.57281 -1.33935 14.792
208 1 11.5796 0.688523 16.7894
217 1 9.57281 2.71639 14.792
209 1 13.5864 -1.33935 14.792
210 1 15.5932 0.688523 16.7894
219 1 13.5864 2.71639 14.792
212 1 -0.461181 4.74426 16.7894
221 1 -2.46798 6.77213 14.792
223 1 1.54562 6.77213 14.792
214 1 3.55241 4.74426 16.7894
225 1 5.55921 6.77213 14.792
216 1 7.56601 4.74426 16.7894
218 1 11.5796 4.74426 16.7894
227 1 9.57281 6.77213 14.792
220 1 15.5932 4.74426 16.7894
229 1 13.5864 6.77213 14.792
350 1 34.284 18.437 6.02135
441 1 29.5633 15.3072 5.65268
392 1 27.3991 13.0526 6.0311
374 1 32.1907 16.7936 6.08641
389 1 32.1889 8.32335 7.59062
375 1 34.3885 15.6261 6.86861
303 1 25.1209 1.06817 4.51839
472 1 23.8672 5.67793 0.0543775
313 1 25.6904 0.0551412 1.75092
254 1 27.0303 18.5707 0.201887
348 1 31.8066 17.971 2.69042
256 1 29.0615 -0.337499 0.393987
386 1 24.9889 9.5685 4.956
305 1 28.6003 -0.0644221 2.68157
315 1 26.0136 3.1438 3.57776
373 1 30.7467 13.3072 6.56292
258 1 32.1907 0.690333 2.53721
439 1 31.908 11.0978 8.74936
307 1 29.6151 2.50838 3.46333
317 1 31.9308 4.51737 3.30524
259 1 34.1944 -0.447467 0.719803
260 1 34.2517 2.31898 -0.0629916
283 1 29.8078 13.401 0.219187
309 1 34.2142 -0.836055 4.00994
319 1 34.4434 2.20066 2.81672
262 1 24.971 2.76358 1.2971
271 1 28.3129 1.95275 0.859135
255 1 26.4263 15.7295 -0.0666131
321 1 29.061 6.15422 5.806
323 1 25.0463 7.35094 3.49757
397 1 30.2416 16.579 7.57639
266 1 28.7255 4.66795 2.10561
346 1 29.9558 17.8046 5.06149
325 1 26.1709 6.03282 1.2187
268 1 31.2673 2.46064 1.16734
344 1 26.7895 16.7821 6.54267
327 1 32.796 6.86958 1.81357
270 1 34.3018 4.49621 1.83248
372 1 26.5435 13.927 4.04146
329 1 34.5083 6.962 3.59547
272 1 23.576 5.54116 2.67253
281 1 28.5733 10.5671 -0.6508
282 1 23.9741 13.0661 3.93911
279 1 34.4495 5.99722 -0.969733
331 1 27.7825 7.80883 6.82338
333 1 22.6546 13.2571 1.11616
274 1 28.3733 7.93508 1.77393
276 1 31.7723 13.094 2.08868
284 1 24.3034 13.4919 -0.579463
395 1 34.2934 12.6504 7.16087
286 1 26.7801 13.2665 0.0652544
335 1 25.5581 10.6441 2.0695
278 1 31.1579 10.5737 0.144035
391 1 22.8966 16.0207 8.02798
288 1 29.6148 15.8897 -0.429285
337 1 33.279 10.6568 3.38246
280 1 34.3756 9.02733 1.66672
342 1 25.6514 18.2973 3.2792
290 1 34.1324 14.3937 1.25621
339 1 34.2852 11.7076 0.898216
370 1 34.0623 10.3531 7.61694
362 1 23.0809 7.09605 8.22832
396 1 23.7468 18.6066 6.26194
341 1 28.0972 17.5501 3.64666
343 1 25.0407 16.0192 1.87054
264 1 30.4891 3.10707 -0.975438
340 1 34.6117 14.23 4.69056
296 1 28.6944 17.2596 1.20513
345 1 28.6219 14.6616 2.11953
387 1 23.4281 9.35643 6.95158
298 1 31.2345 18.2365 0.0915115
347 1 31.5183 15.9299 1.57826
383 1 27.9901 4.58573 8.27836
300 1 34.3567 17.3561 1.46284
349 1 34.5419 16.4673 3.71874
385 1 34.0784 5.25864 8.12448
466 1 32.0794 4.93081 -0.156606
352 1 22.1591 18.4418 8.46917
356 1 27.8154 -1.11549 5.73281
378 1 26.0459 1.23269 8.66938
304 1 27.5795 1.60187 5.84611
306 1 31.3111 -0.328243 5.37578
277 1 32.3684 7.64714 -0.886102
358 1 24.4052 3.15342 6.70246
308 1 32.1282 1.928 4.83951
354 1 32.8713 -0.210132 7.89028
359 1 29.9525 1.13291 7.90129
310 1 34.4148 1.17138 5.49957
289 1 34.4196 8.82112 -0.918261
360 1 34.5131 2.15397 7.84129
312 1 22.9192 1.2518 6.24545
361 1 27.77 5.21274 5.06806
435 1 25.0661 11.3495 7.36113
314 1 22.9888 3.39752 3.8309
316 1 30.1616 3.63548 5.59278
363 1 26.1005 6.9165 8.47388
318 1 31.9321 3.56495 7.08367
364 1 32.0478 6.39772 5.92415
320 1 34.2257 4.49181 4.94282
365 1 34.8286 6.84553 6.07994
322 1 27.9387 8.09117 4.18612
332 1 24.5612 15.3402 4.86403
366 1 28.1962 10.9681 5.09809
367 1 24.834 14.4081 7.09455
324 1 27.9641 11.408 2.15765
326 1 30.7547 7.41557 3.30027
334 1 29.947 12.7794 3.69167
336 1 31.8624 15.0507 4.09332
368 1 29.7129 8.32111 8.07849
328 1 30.4132 10.1346 2.50624
338 1 32.6788 12.4872 5.23847
369 1 30.8966 9.74808 5.50406
330 1 34.4026 9.2626 5.2423
433 1 22.6809 11.8208 5.90612
390 1 34.4112 7.79418 8.59291
398 1 29.2954 -1.47823 7.65883
257 1 31.9221 0.309569 -0.520976
393 1 29.0438 10.7634 7.3171
275 1 30.1696 6.56054 0.409014
498 1 34.6118 16.403 -0.966746
394 1 32.5784 13.8449 8.48202
500 1 34.486 17.1545 15.9716
401 1 28.0844 16.5604 13.4924
402 1 24.1162 2.29317 17.5736
403 1 22.9195 16.5036 10.5768
411 1 27.8478 5.4382 11.2389
413 1 22.7984 5.5803 11.5815
499 1 34.1824 14.5159 15.6919
351 1 28.4262 1.11054 17.7908
404 1 20.5653 1.34401 11.584
405 1 23.6926 -0.197365 12.5411
406 1 26.1597 0.764033 12.1216
415 1 28.0043 2.54235 9.60554
497 1 31.1862 13.9389 14.4624
407 1 30.9695 17.792 9.86834
408 1 31.995 1.85318 11.863
417 1 32.1839 4.41859 12.7357
496 1 28.0603 17.1066 17.8382
409 1 34.4245 18.3125 11.9027
410 1 34.1599 0.187469 12.8112
419 1 34.542 3.15343 11.2137
384 1 32.2724 2.44567 9.39512
412 1 24.5163 2.94453 14.5126
421 1 27.768 11.8544 12.3275
423 1 22.0695 9.25391 10.4406
495 1 29.1742 15.4641 15.1847
253 1 30.9673 17.2141 14.0492
414 1 22.5962 1.30905 14.226
416 1 30.2365 4.06518 11.1404
425 1 24.1727 7.98173 10.6977
494 1 24.338 16.6962 16.1507
418 1 31.6134 6.93188 12.8717
427 1 31.5443 5.44153 9.62863
376 1 21.1066 3.30512 12.9185
420 1 34.4791 7.837 11.7087
429 1 34.2201 5.67565 10.6038
493 1 25.2649 15.0117 13.335
269 1 34.5468 4.38285 16.872
422 1 25.9225 7.62768 12.1594
431 1 27.8822 7.51732 14.9891
432 1 22.7575 12.3034 8.91499
293 1 21.9641 17.405 18.6726
301 1 32.454 18.0716 17.0536
492 1 22.2139 17.7921 14.1541
379 1 30.0168 0.533946 10.5476
265 1 29.7185 -0.932157 17.3887
424 1 26.9416 9.61801 9.64918
426 1 29.3956 8.43608 12.8319
434 1 28.1357 12.3344 8.98768
399 1 33.2909 16.2808 8.98139
436 1 30.4699 11.2084 13.1101
491 1 27.7451 13.4902 16.357
490 1 34.4137 12.3301 15.4883
428 1 32.1007 8.3877 10.5448
437 1 29.5182 9.8904 10.734
438 1 31.5659 12.4737 11.2718
489 1 34.3063 11.6911 12.5725
480 1 34.965 6.66423 16.4777
430 1 34.3188 10.0058 10.781
377 1 23.7613 0.371762 9.3508
440 1 34.4177 14.0261 13.2243
488 1 32.3119 11.6909 14.7064
302 1 20.6208 -0.866315 17.4591
442 1 23.1416 11.8201 11.3894
443 1 24.5998 13.5848 10.6622
476 1 31.7076 5.74724 17.1479
487 1 32.4004 9.79693 12.9898
444 1 27.9685 -0.762081 9.78862
445 1 30.7077 14.7844 9.99574
446 1 29.4449 18.8202 12.4477
478 1 34.1452 10.0605 16.6353
447 1 29.4951 13.8705 12.1614
448 1 32.333 15.713 12.0056
388 1 29.6684 7.08847 10.513
449 1 34.2612 12.4814 9.84034
450 1 34.1936 16.7599 13.6676
451 1 27.8145 15.3013 10.7044
452 1 24.8472 16.9241 12.2936
453 1 22.8495 0.0431487 17.2992
461 1 28.3462 2.85235 16.2175
463 1 20.662 -0.776777 13.9016
454 1 25.4562 18.5806 17.284
455 1 28.59 17.9011 15.3774
456 1 31.5975 -0.324446 15.2207
465 1 26.1531 0.457989 16.1802
457 1 31.9394 -0.933497 12.2886
458 1 34.2837 -0.324416 18.2268
467 1 29.167 2.30921 13.3137
459 1 34.0866 -0.740911 15.0127
460 1 34.4387 1.40966 16.1846
469 1 34.3134 3.10322 13.7549
462 1 27.8975 -0.36705 13.9551
471 1 29.1268 5.18365 18.3212
473 1 26.7692 3.72998 13.4057
464 1 28.7726 5.79241 13.1717
382 1 23.732 2.72489 11.1377
475 1 32.5438 7.56614 15.5716
468 1 31.2512 2.09943 14.6412
477 1 32.411 4.12895 15.1967
470 1 34.2478 5.86291 13.7465
479 1 34.5338 9.34777 13.976
295 1 29.9139 14.1433 17.6357
481 1 27.7218 7.48329 18.6666
482 1 25.1049 11.1269 18.2986
483 1 24.1323 12.0089 15.9305
474 1 30.0809 8.14014 18.3169
400 1 34.6062 15.1538 10.998
484 1 28.8756 11.3195 15.2015
485 1 25.2371 9.96832 15.2566
486 1 31.227 10.2079 16.3586
251 1 32.0419 17.6829 17.5144
261 1 29.8542 7.89396 15.4025
273 1 29.7354 4.95399 15.1305
291 1 28.5961 10.9405 17.8321
263 1 21.3074 16.5842 16.2958
380 1 34.3881 0.263306 10.3156
285 1 31.5981 12.407 17.498
299 1 34.3147 14.0011 18.2157
252 1 25.6211 4.50627 17.1108
297 1 31.8404 15.2649 16.3963
292 1 24.8324 14.2411 16.6365
311 1 27.8473 7.49152 17.168
287 1 34.0705 11.5731 18.4868
371 1 28.6008 16.4763 9.84726
353 1 24.9345 18.2744 9.8088
355 1 34.3081 18.3294 9.35005
267 1 32.2155 2.52599 17.0843
357 1 24.3829 4.31429 8.81076
294 1 23.8238 16.0024 18.6905
381 1 21.784 2.88996 9.05848
