ITEM: TIMESTEP
500
ITEM: NUMBER OF ATOMS
500
ITEM: BOX BOUNDS pp pp pp
-1.6979319594129016e+00 3.6897931959412901e+01
-9.9351846863460658e-01 1.8593518468634642e+01
-1.2198774272953923e+00 1.8819877427295388e+01
ITEM: ATOMS id type x y z
1 1 -1.69793 -0.993518 -1.21988
2 1 0.231861 0.965185 0.784098
3 1 2.16165 -0.993518 -1.21988
11 1 -1.69793 2.92389 -1.21988
13 1 2.16165 2.92389 -1.21988
51 1 -1.69793 -0.993518 2.78807
53 1 2.16165 -0.993518 2.78807
61 1 -1.69793 2.92389 2.78807
63 1 2.16165 2.92389 2.78807
4 1 4.09145 0.965185 0.784098
5 1 6.02124 -0.993518 -1.21988
15 1 6.02124 2.92389 -1.21988
55 1 6.02124 -0.993518 2.78807
65 1 6.02124 2.92389 2.78807
6 1 7.95103 0.965185 0.784098
7 1 9.88083 -0.993518 -1.21988
8 1 11.8106 0.965185 0.784098
17 1 9.88083 2.92389 -1.21988
57 1 9.88083 -0.993518 2.78807
67 1 9.88083 2.92389 2.78807
9 1 13.7404 -0.993518 -1.21988
10 1 15.6702 0.965185 0.784098
19 1 13.7404 2.92389 -1.21988
59 1 13.7404 -0.993518 2.78807
69 1 13.7404 2.92389 2.78807
12 1 0.231861 4.88259 0.784098
21 1 -1.69793 6.8413 -1.21988
23 1 2.16165 6.8413 -1.21988
71 1 -1.69793 6.8413 2.78807
73 1 2.16165 6.8413 2.78807
14 1 4.09145 4.88259 0.784098
25 1 6.02124 6.8413 -1.21988
75 1 6.02124 6.8413 2.78807
16 1 7.95103 4.88259 0.784098
18 1 11.8106 4.88259 0.784098
27 1 9.88083 6.8413 -1.21988
77 1 9.88083 6.8413 2.78807
20 1 15.6702 4.88259 0.784098
29 1 13.7404 6.8413 -1.21988
79 1 13.7404 6.8413 2.78807
22 1 0.231861 8.8 0.784098
31 1 -1.69793 10.7587 -1.21988
32 1 0.231861 12.7174 0.784098
33 1 2.16165 10.7587 -1.21988
81 1 -1.69793 10.7587 2.78807
83 1 2.16165 10.7587 2.78807
24 1 4.09145 8.8 0.784098
34 1 4.09145 12.7174 0.784098
35 1 6.02124 10.7587 -1.21988
85 1 6.02124 10.7587 2.78807
26 1 7.95103 8.8 0.784098
28 1 11.8106 8.8 0.784098
36 1 7.95103 12.7174 0.784098
37 1 9.88083 10.7587 -1.21988
38 1 11.8106 12.7174 0.784098
87 1 9.88083 10.7587 2.78807
30 1 15.6702 8.8 0.784098
39 1 13.7404 10.7587 -1.21988
40 1 15.6702 12.7174 0.784098
89 1 13.7404 10.7587 2.78807
41 1 -1.69793 14.6761 -1.21988
42 1 0.231861 16.6348 0.784098
43 1 2.16165 14.6761 -1.21988
91 1 -1.69793 14.6761 2.78807
93 1 2.16165 14.6761 2.78807
44 1 4.09145 16.6348 0.784098
45 1 6.02124 14.6761 -1.21988
95 1 6.02124 14.6761 2.78807
46 1 7.95103 16.6348 0.784098
47 1 9.88083 14.6761 -1.21988
48 1 11.8106 16.6348 0.784098
97 1 9.88083 14.6761 2.78807
49 1 13.7404 14.6761 -1.21988
50 1 15.6702 16.6348 0.784098
99 1 13.7404 14.6761 2.78807
52 1 0.231861 0.965185 4.79205
101 1 -1.69793 -0.993518 6.79602
102 1 2.16165 -0.993518 6.79602
106 1 -1.69793 2.92389 6.79602
107 1 2.16165 2.92389 6.79602
54 1 4.09145 0.965185 4.79205
103 1 6.02124 -0.993518 6.79602
108 1 6.02124 2.92389 6.79602
56 1 7.95103 0.965185 4.79205
58 1 11.8106 0.965185 4.79205
104 1 9.88083 -0.993518 6.79602
109 1 9.88083 2.92389 6.79602
60 1 15.6702 0.965185 4.79205
105 1 13.7404 -0.993518 6.79602
110 1 13.7404 2.92389 6.79602
62 1 0.231861 4.88259 4.79205
111 1 -1.69793 6.8413 6.79602
112 1 2.16165 6.8413 6.79602
64 1 4.09145 4.88259 4.79205
113 1 6.02124 6.8413 6.79602
66 1 7.95103 4.88259 4.79205
68 1 11.8106 4.88259 4.79205
114 1 9.88083 6.8413 6.79602
70 1 15.6702 4.88259 4.79205
115 1 13.7404 6.8413 6.79602
72 1 0.231861 8.8 4.79205
82 1 0.231861 12.7174 4.79205
116 1 -1.69793 10.7587 6.79602
117 1 2.16165 10.7587 6.79602
74 1 4.09145 8.8 4.79205
84 1 4.09145 12.7174 4.79205
118 1 6.02124 10.7587 6.79602
76 1 7.95103 8.8 4.79205
78 1 11.8106 8.8 4.79205
86 1 7.95103 12.7174 4.79205
88 1 11.8106 12.7174 4.79205
119 1 9.88083 10.7587 6.79602
80 1 15.6702 8.8 4.79205
90 1 15.6702 12.7174 4.79205
120 1 13.7404 10.7587 6.79602
92 1 0.231861 16.6348 4.79205
121 1 -1.69793 14.6761 6.79602
122 1 2.16165 14.6761 6.79602
94 1 4.09145 16.6348 4.79205
123 1 6.02124 14.6761 6.79602
96 1 7.95103 16.6348 4.79205
98 1 11.8106 16.6348 4.79205
124 1 9.88083 14.6761 6.79602
100 1 15.6702 16.6348 4.79205
125 1 13.7404 14.6761 6.79602
150 1 15.6702 16.6348 8.8
126 1 0.231861 0.965185 8.8
127 1 4.09145 0.965185 8.8
128 1 7.95103 0.965185 8.8
129 1 11.8106 0.965185 8.8
130 1 15.6702 0.965185 8.8
131 1 0.231861 4.88259 8.8
132 1 4.09145 4.88259 8.8
133 1 7.95103 4.88259 8.8
134 1 11.8106 4.88259 8.8
135 1 15.6702 4.88259 8.8
136 1 0.231861 8.8 8.8
141 1 0.231861 12.7174 8.8
137 1 4.09145 8.8 8.8
142 1 4.09145 12.7174 8.8
138 1 7.95103 8.8 8.8
139 1 11.8106 8.8 8.8
143 1 7.95103 12.7174 8.8
144 1 11.8106 12.7174 8.8
140 1 15.6702 8.8 8.8
145 1 15.6702 12.7174 8.8
146 1 0.231861 16.6348 8.8
147 1 4.09145 16.6348 8.8
148 1 7.95103 16.6348 8.8
149 1 11.8106 16.6348 8.8
250 1 15.6702 16.6348 16.8159
151 1 -1.69793 -0.993518 10.804
152 1 0.231861 0.965185 12.808
153 1 2.16165 -0.993518 10.804
161 1 -1.69793 2.92389 10.804
163 1 2.16165 2.92389 10.804
249 1 13.7404 14.6761 14.8119
154 1 4.09145 0.965185 12.808
155 1 6.02124 -0.993518 10.804
165 1 6.02124 2.92389 10.804
248 1 11.8106 16.6348 16.8159
247 1 9.88083 14.6761 14.8119
156 1 7.95103 0.965185 12.808
157 1 9.88083 -0.993518 10.804
158 1 11.8106 0.965185 12.808
167 1 9.88083 2.92389 10.804
246 1 7.95103 16.6348 16.8159
159 1 13.7404 -0.993518 10.804
160 1 15.6702 0.965185 12.808
169 1 13.7404 2.92389 10.804
245 1 6.02124 14.6761 14.8119
162 1 0.231861 4.88259 12.808
171 1 -1.69793 6.8413 10.804
173 1 2.16165 6.8413 10.804
244 1 4.09145 16.6348 16.8159
164 1 4.09145 4.88259 12.808
175 1 6.02124 6.8413 10.804
243 1 2.16165 14.6761 14.8119
242 1 0.231861 16.6348 16.8159
166 1 7.95103 4.88259 12.808
168 1 11.8106 4.88259 12.808
177 1 9.88083 6.8413 10.804
241 1 -1.69793 14.6761 14.8119
170 1 15.6702 4.88259 12.808
179 1 13.7404 6.8413 10.804
240 1 15.6702 12.7174 16.8159
239 1 13.7404 10.7587 14.8119
172 1 0.231861 8.8 12.808
181 1 -1.69793 10.7587 10.804
182 1 0.231861 12.7174 12.808
183 1 2.16165 10.7587 10.804
230 1 15.6702 8.8 16.8159
238 1 11.8106 12.7174 16.8159
174 1 4.09145 8.8 12.808
184 1 4.09145 12.7174 12.808
185 1 6.02124 10.7587 10.804
237 1 9.88083 10.7587 14.8119
236 1 7.95103 12.7174 16.8159
228 1 11.8106 8.8 16.8159
226 1 7.95103 8.8 16.8159
176 1 7.95103 8.8 12.808
178 1 11.8106 8.8 12.808
186 1 7.95103 12.7174 12.808
187 1 9.88083 10.7587 10.804
188 1 11.8106 12.7174 12.808
235 1 6.02124 10.7587 14.8119
234 1 4.09145 12.7174 16.8159
180 1 15.6702 8.8 12.808
189 1 13.7404 10.7587 10.804
190 1 15.6702 12.7174 12.808
224 1 4.09145 8.8 16.8159
191 1 -1.69793 14.6761 10.804
192 1 0.231861 16.6348 12.808
193 1 2.16165 14.6761 10.804
233 1 2.16165 10.7587 14.8119
194 1 4.09145 16.6348 12.808
195 1 6.02124 14.6761 10.804
232 1 0.231861 12.7174 16.8159
231 1 -1.69793 10.7587 14.8119
196 1 7.95103 16.6348 12.808
197 1 9.88083 14.6761 10.804
198 1 11.8106 16.6348 12.808
222 1 0.231861 8.8 16.8159
199 1 13.7404 14.6761 10.804
200 1 15.6702 16.6348 12.808
201 1 -1.69793 -0.993518 14.8119
202 1 0.231861 0.965185 16.8159
203 1 2.16165 -0.993518 14.8119
211 1 -1.69793 2.92389 14.8119
213 1 2.16165 2.92389 14.8119
204 1 4.09145 0.965185 16.8159
205 1 6.02124 -0.993518 14.8119
215 1 6.02124 2.92389 14.8119
206 1 7.95103 0.965185 16.8159
207 1 9.88083 -0.993518 14.8119
208 1 11.8106 0.965185 16.8159
217 1 9.88083 2.92389 14.8119
209 1 13.7404 -0.993518 14.8119
210 1 15.6702 0.965185 16.8159
219 1 13.7404 2.92389 14.8119
212 1 0.231861 4.88259 16.8159
221 1 -1.69793 6.8413 14.8119
223 1 2.16165 6.8413 14.8119
214 1 4.09145 4.88259 16.8159
225 1 6.02124 6.8413 14.8119
216 1 7.95103 4.88259 16.8159
218 1 11.8106 4.88259 16.8159
227 1 9.88083 6.8413 14.8119
220 1 15.6702 4.88259 16.8159
229 1 13.7404 6.8413 14.8119
350 1 34.6744 16.5817 4.68008
441 1 24.4713 14.9306 7.62196
380 1 34.3912 0.613531 8.81139
374 1 31.4307 14.6354 5.37727
397 1 27.1265 15.9772 8.70097
375 1 34.1487 14.7855 6.37761
303 1 25.4475 18.2434 3.06798
311 1 23.6082 5.79281 -0.683828
313 1 25.0542 2.29019 1.81113
254 1 26.9599 0.616341 1.25107
348 1 32.1992 17.5141 4.44315
256 1 29.491 1.60267 0.945621
277 1 30.9015 7.96621 0.142879
305 1 28.4147 -0.232634 3.28954
315 1 28.2633 3.17117 2.3969
373 1 28.4869 14.8903 6.84099
258 1 32.1734 1.2197 1.04863
377 1 26.3946 0.813439 8.0472
307 1 30.9559 -0.226669 2.71132
317 1 31.0524 3.27968 3.47783
259 1 34.3702 -0.560897 -0.730108
260 1 34.341 1.73287 0.311141
301 1 26.0451 18.0722 -0.754624
309 1 34.3535 -0.414555 2.4881
319 1 33.7671 3.05157 2.90408
262 1 26.1242 6.33451 1.35614
271 1 23.8995 3.94579 0.0454938
255 1 29.4956 16.1196 -0.207081
321 1 24.3533 6.47005 4.64238
323 1 26.1062 8.87977 3.60967
264 1 27.3038 2.56168 -0.561136
266 1 28.7807 4.84036 -0.117269
346 1 30.0278 16.9826 5.44082
325 1 28.6594 6.54792 2.80734
268 1 31.6644 4.03971 1.09479
344 1 27.3157 16.9835 4.76205
327 1 31.0906 6.36607 1.92296
270 1 34.2489 4.77786 0.752
372 1 25.7958 14.8828 5.22706
329 1 33.5926 6.44204 2.87628
272 1 23.4577 8.08247 2.19865
281 1 23.9389 10.6021 -0.888413
282 1 22.2884 11.7858 3.84096
399 1 31.7609 15.9977 8.12639
331 1 23.5301 8.94485 5.27163
333 1 25.1325 10.3209 1.76307
274 1 27.5288 9.30482 0.545181
276 1 29.6123 10.3535 1.19347
284 1 26.2612 13.8578 -0.0392805
395 1 34.4855 13.0454 8.56242
286 1 29.1868 13.8051 0.727476
335 1 26.9332 11.7695 2.19381
278 1 32.5204 9.72336 1.08806
371 1 24.0751 15.633 8.67914
288 1 31.8903 12.5767 1.27119
337 1 30.7978 11.2371 3.3585
280 1 34.3997 8.26183 1.04938
342 1 22.3751 17.9901 4.67453
290 1 34.5028 12.807 0.930746
339 1 34.3269 11.3009 3.06833
370 1 34.4043 10.1209 7.01206
292 1 23.8399 13.6871 0.670214
396 1 21.697 0.499159 7.50539
341 1 23.7665 16.2781 3.30681
343 1 25.0387 13.8613 3.14399
294 1 27.0543 16.7437 1.39172
340 1 34.5336 13.3694 4.55249
296 1 29.6971 16.893 2.64022
345 1 28.0877 14.5675 3.2284
297 1 31.3689 14.4277 -1.03704
298 1 31.8761 17.2624 1.07074
347 1 31.121 14.4683 2.71807
392 1 28.6227 12.8495 8.78689
300 1 34.4842 16.7931 0.680909
349 1 33.4889 15.2271 2.64634
385 1 34.5295 5.22931 8.3406
351 1 23.8607 0.478389 1.23855
352 1 24.7778 17.7861 6.35067
356 1 23.5455 0.621672 6.13431
357 1 24.5656 2.63659 7.5687
304 1 26.2617 1.45325 4.49746
306 1 29.0796 1.15374 5.39256
353 1 27.8787 -0.74774 6.52803
358 1 27.3593 3.1564 6.56618
308 1 32.1563 0.999265 4.65832
354 1 31.1501 -0.347704 7.49979
359 1 30.8381 2.46579 6.75652
310 1 34.4998 0.718486 4.80685
355 1 33.6808 18.5388 6.94076
360 1 33.3644 2.37356 7.03163
312 1 24.5697 3.17507 4.13065
361 1 23.5243 5.90441 5.72317
362 1 25.7714 5.80529 7.7524
314 1 26.5234 4.8482 4.29678
316 1 29.0606 4.40006 4.78221
363 1 28.2847 6.77568 7.13957
318 1 31.9209 4.95142 5.23096
364 1 31.5945 6.67865 7.51154
320 1 34.2512 4.412 5.02726
365 1 34.1959 7.04374 6.14709
322 1 26.4087 9.08484 6.26702
332 1 23.026 13.9556 5.50671
366 1 23.7395 10.8429 5.74174
367 1 26.205 12.4494 7.44589
324 1 28.784 9.35258 4.24619
326 1 29.8818 7.17517 5.53445
334 1 26.7091 11.7591 5.11933
336 1 29.1078 12.2669 4.7669
368 1 28.8038 9.62308 7.09324
328 1 31.6226 8.28269 3.81167
338 1 32.5779 11.6393 5.04756
369 1 31.8602 9.34214 6.0803
330 1 34.1542 8.4585 4.18457
433 1 23.5132 11.403 8.43669
381 1 21.8552 3.03615 8.22694
389 1 31.9253 8.97028 8.5564
287 1 31.7035 11.326 -1.13697
393 1 30.2223 12.6015 6.8811
275 1 28.5976 7.48203 -0.892478
279 1 33.4718 7.0426 -1.13167
386 1 21.2981 7.73379 6.10951
384 1 32.0393 4.25349 8.51165
472 1 25.2876 7.90283 -0.673519
400 1 34.4316 16.6092 8.7817
398 1 29.0361 17.5548 8.40376
257 1 31.2231 -0.244543 -0.846089
391 1 21.743 13.1723 8.58204
382 1 26.3817 3.79987 8.83959
383 1 29.172 4.39984 8.5377
394 1 32.2236 12.8177 8.47372
378 1 29.4224 1.455 8.71826
500 1 34.2262 16.9919 17.2739
401 1 23.6812 17.1643 12.4709
402 1 20.3833 2.41011 13.2223
403 1 25.2659 -0.92748 9.48932
411 1 23.5613 4.55916 11.0771
413 1 23.3401 1.15537 10.1666
499 1 34.3542 15.2176 15.4703
498 1 31.7001 17.059 18.1161
404 1 25.8819 0.354021 12.0989
405 1 27.6663 18.4073 11.1576
406 1 29.8638 0.308237 11.8192
415 1 28.1465 2.46029 10.7028
497 1 31.7645 14.496 14.7482
407 1 30.8585 18.0658 10.2369
408 1 31.6487 -0.183914 13.5964
417 1 31.6403 2.94996 10.7808
496 1 29.8258 15.6719 16.2593
409 1 33.9864 18.1171 10.4681
410 1 34.5109 1.10696 12.2651
419 1 34.4324 3.14196 10.7607
387 1 26.5752 8.91849 9.04753
412 1 23.9036 5.03993 13.6135
421 1 23.5554 9.89473 11.7504
423 1 25.4332 6.9238 11.1
495 1 28.682 14.3634 14.0061
253 1 28.8216 18.5304 17.8404
414 1 25.5179 3.22749 11.8921
416 1 29.6909 4.73904 11.9054
425 1 27.744 5.99734 10.5457
494 1 27.3463 15.9608 15.6211
418 1 32.2211 4.11973 13.3614
427 1 31.0322 6.39619 10.7265
376 1 21.0447 2.2342 10.7076
420 1 34.3643 5.17604 12.783
429 1 33.7317 6.39938 10.685
493 1 25.1656 14.4895 14.0397
269 1 33.6853 3.88235 18.5362
422 1 26.3221 7.04172 14.4407
431 1 23.5782 8.76971 13.3966
432 1 20.7138 11.8276 10.5157
289 1 34.1824 10.9364 18.7351
390 1 34.5071 8.37849 9.19449
492 1 23.877 16.3459 15.558
379 1 32.2078 0.856757 9.54036
265 1 28.4414 2.49315 17.1768
424 1 26.4642 9.12702 11.6136
426 1 28.708 7.90805 12.7688
434 1 27.1714 12.7552 11.8826
435 1 28.1044 11.0296 10.2628
436 1 29.5129 11.8957 12.9358
491 1 23.5393 13.839 15.7799
490 1 34.2983 12.3061 16.6117
428 1 31.6997 8.91742 12.0378
437 1 30.8808 10.786 10.2839
438 1 32.1246 11.9458 12.5457
489 1 34.1841 10.6771 13.7923
480 1 34.5065 8.78372 17.1598
430 1 34.344 8.93831 11.8862
439 1 34.4643 11.1972 10.3266
440 1 34.2541 13.2716 12.9276
488 1 31.6334 12.164 15.5634
302 1 23.0227 0.874991 17.2574
442 1 23.3453 12.7546 12.4138
443 1 25.7818 14.8031 10.7873
293 1 25.7691 14.792 17.5296
487 1 31.157 9.67487 14.2689
444 1 26.9087 16.465 12.4614
445 1 29.1107 14.6643 10.4952
446 1 29.6032 16.5163 12.9659
478 1 32.1976 9.49169 16.7348
447 1 31.7105 13.9824 11.0244
448 1 31.8775 16.3659 12.114
388 1 29.2404 8.14829 9.89235
449 1 34.4241 14.7562 10.7097
450 1 34.3263 16.9909 12.9015
451 1 23.5451 16.4078 12.2837
452 1 21.5052 -0.214789 14.305
453 1 24.7164 -0.89553 14.8338
461 1 23.9199 3.00557 15.6936
463 1 23.1361 1.04313 12.962
454 1 26.7091 0.741492 15.9836
455 1 27.885 18.438 14.3026
456 1 29.3134 0.456247 15.7739
465 1 27.7627 2.03304 13.239
457 1 31.6865 17.4539 14.9118
458 1 31.9812 0.0666473 16.722
467 1 29.701 3.02395 14.5458
459 1 34.2889 18.6721 15.2007
460 1 34.3389 1.83155 17.0782
469 1 33.4851 2.01524 14.4462
462 1 26.5962 3.82616 15.3479
471 1 24.2357 5.88693 16.9947
473 1 27.7391 5.06255 13.6033
464 1 29.6199 4.82587 16.8246
466 1 31.2568 5.50282 18.6911
475 1 29.3934 6.93381 15.2529
468 1 31.5841 3.1804 16.291
477 1 32.1879 6.28801 16.1397
470 1 34.5855 4.86355 15.9899
479 1 34.2478 7.95095 14.393
295 1 28.3622 14.4065 18.079
481 1 23.504 8.74926 17.2084
482 1 24.7581 11.2458 15.7908
483 1 25.9874 10.8573 13.518
474 1 26.563 8.9586 16.9494
476 1 29.7765 8.97407 16.9663
484 1 26.8635 12.5644 15.359
485 1 28.106 9.74965 14.6138
486 1 29.0926 12.2783 16.418
251 1 26.1332 17.8386 18.033
261 1 24.8292 6.0346 16.7267
273 1 27.2972 5.58783 17.659
291 1 23.9511 12.3071 18.2295
263 1 25.2952 1.86879 18.0552
283 1 26.5538 11.3563 18.3575
285 1 29.0517 10.9765 18.6075
267 1 30.7719 2.48106 18.8804
252 1 21.6127 3.32228 16.8294
299 1 33.8936 14.4073 18.5741
